285
Lattice="25.96496101 0.0 0.0 12.9824805 22.48631584 0.0 0.0 0.0 64.7111782" Properties=species:S:1:pos:R:3:forces:R:3 energy=-130403334.896934 pbc="T T T"
Au       1.44249783       0.83282651      30.00000000       0.00000000       0.00000000       0.00000000
Au       4.32749350       0.83282651      30.00000000       0.00000000       0.00000000       0.00000000
Au       7.21248917       0.83282651      30.00000000       0.00000000       0.00000000       0.00000000
Au      10.09748484       0.83282651      30.00000000       0.00000000       0.00000000       0.00000000
Au      12.98248050       0.83282651      30.00000000       0.00000000       0.00000000       0.00000000
Au      15.86747617       0.83282651      30.00000000       0.00000000       0.00000000       0.00000000
Au      18.75247184       0.83282651      30.00000000       0.00000000       0.00000000       0.00000000
Au      21.63746750       0.83282651      30.00000000       0.00000000       0.00000000       0.00000000
Au      24.52246317       0.83282651      30.00000000       0.00000000       0.00000000       0.00000000
Au       2.88499567       3.33130605      30.00000000       0.00000000       0.00000000       0.00000000
Au       5.76999133       3.33130605      30.00000000       0.00000000       0.00000000       0.00000000
Au       8.65498700       3.33130605      30.00000000       0.00000000       0.00000000       0.00000000
Au      11.53998267       3.33130605      30.00000000       0.00000000       0.00000000       0.00000000
Au      14.42497834       3.33130605      30.00000000       0.00000000       0.00000000       0.00000000
Au      17.30997400       3.33130605      30.00000000       0.00000000       0.00000000       0.00000000
Au      20.19496967       3.33130605      30.00000000       0.00000000       0.00000000       0.00000000
Au      23.07996534       3.33130605      30.00000000       0.00000000       0.00000000       0.00000000
Au      25.96496101       3.33130605      30.00000000       0.00000000       0.00000000       0.00000000
Au       4.32749350       5.82978559      30.00000000       0.00000000       0.00000000       0.00000000
Au       7.21248917       5.82978559      30.00000000       0.00000000       0.00000000       0.00000000
Au      10.09748484       5.82978559      30.00000000       0.00000000       0.00000000       0.00000000
Au      12.98248050       5.82978559      30.00000000       0.00000000       0.00000000       0.00000000
Au      15.86747617       5.82978559      30.00000000       0.00000000       0.00000000       0.00000000
Au      18.75247184       5.82978559      30.00000000       0.00000000       0.00000000       0.00000000
Au      21.63746750       5.82978559      30.00000000       0.00000000       0.00000000       0.00000000
Au      24.52246317       5.82978559      30.00000000       0.00000000       0.00000000       0.00000000
Au      27.40745884       5.82978559      30.00000000       0.00000000       0.00000000       0.00000000
Au       5.76999133       8.32826513      30.00000000       0.00000000       0.00000000       0.00000000
Au       8.65498700       8.32826513      30.00000000       0.00000000       0.00000000       0.00000000
Au      11.53998267       8.32826513      30.00000000       0.00000000       0.00000000       0.00000000
Au      14.42497834       8.32826513      30.00000000       0.00000000       0.00000000       0.00000000
Au      17.30997400       8.32826513      30.00000000       0.00000000       0.00000000       0.00000000
Au      20.19496967       8.32826513      30.00000000       0.00000000       0.00000000       0.00000000
Au      23.07996534       8.32826513      30.00000000       0.00000000       0.00000000       0.00000000
Au      25.96496101       8.32826513      30.00000000       0.00000000       0.00000000       0.00000000
Au      28.84995667       8.32826513      30.00000000       0.00000000       0.00000000       0.00000000
Au       7.21248917      10.82674466      30.00000000       0.00000000       0.00000000       0.00000000
Au      10.09748484      10.82674466      30.00000000       0.00000000       0.00000000       0.00000000
Au      12.98248050      10.82674466      30.00000000       0.00000000       0.00000000       0.00000000
Au      15.86747617      10.82674466      30.00000000       0.00000000       0.00000000       0.00000000
Au      18.75247184      10.82674466      30.00000000       0.00000000       0.00000000       0.00000000
Au      21.63746750      10.82674466      30.00000000       0.00000000       0.00000000       0.00000000
Au      24.52246317      10.82674466      30.00000000       0.00000000       0.00000000       0.00000000
Au      27.40745884      10.82674466      30.00000000       0.00000000       0.00000000       0.00000000
Au      30.29245451      10.82674466      30.00000000       0.00000000       0.00000000       0.00000000
Au       8.65498700      13.32522420      30.00000000       0.00000000       0.00000000       0.00000000
Au      11.53998267      13.32522420      30.00000000       0.00000000       0.00000000       0.00000000
Au      14.42497834      13.32522420      30.00000000       0.00000000       0.00000000       0.00000000
Au      17.30997400      13.32522420      30.00000000       0.00000000       0.00000000       0.00000000
Au      20.19496967      13.32522420      30.00000000       0.00000000       0.00000000       0.00000000
Au      23.07996534      13.32522420      30.00000000       0.00000000       0.00000000       0.00000000
Au      25.96496101      13.32522420      30.00000000       0.00000000       0.00000000       0.00000000
Au      28.84995667      13.32522420      30.00000000       0.00000000       0.00000000       0.00000000
Au      31.73495234      13.32522420      30.00000000       0.00000000       0.00000000       0.00000000
Au      10.09748484      15.82370374      30.00000000       0.00000000       0.00000000       0.00000000
Au      12.98248050      15.82370374      30.00000000       0.00000000       0.00000000       0.00000000
Au      15.86747617      15.82370374      30.00000000       0.00000000       0.00000000       0.00000000
Au      18.75247184      15.82370374      30.00000000       0.00000000       0.00000000       0.00000000
Au      21.63746750      15.82370374      30.00000000       0.00000000       0.00000000       0.00000000
Au      24.52246317      15.82370374      30.00000000       0.00000000       0.00000000       0.00000000
Au      27.40745884      15.82370374      30.00000000       0.00000000       0.00000000       0.00000000
Au      30.29245451      15.82370374      30.00000000       0.00000000       0.00000000       0.00000000
Au      33.17745017      15.82370374      30.00000000       0.00000000       0.00000000       0.00000000
Au      11.53998267      18.32218328      30.00000000       0.00000000       0.00000000       0.00000000
Au      14.42497834      18.32218328      30.00000000       0.00000000       0.00000000       0.00000000
Au      17.30997400      18.32218328      30.00000000       0.00000000       0.00000000       0.00000000
Au      20.19496967      18.32218328      30.00000000       0.00000000       0.00000000       0.00000000
Au      23.07996534      18.32218328      30.00000000       0.00000000       0.00000000       0.00000000
Au      25.96496101      18.32218328      30.00000000       0.00000000       0.00000000       0.00000000
Au      28.84995667      18.32218328      30.00000000       0.00000000       0.00000000       0.00000000
Au      31.73495234      18.32218328      30.00000000       0.00000000       0.00000000       0.00000000
Au      34.61994801      18.32218328      30.00000000       0.00000000       0.00000000       0.00000000
Au      12.98248050      20.82066281      30.00000000       0.00000000       0.00000000       0.00000000
Au      15.86747617      20.82066281      30.00000000       0.00000000       0.00000000       0.00000000
Au      18.75247184      20.82066281      30.00000000       0.00000000       0.00000000       0.00000000
Au      21.63746750      20.82066281      30.00000000       0.00000000       0.00000000       0.00000000
Au      24.52246317      20.82066281      30.00000000       0.00000000       0.00000000       0.00000000
Au      27.40745884      20.82066281      30.00000000       0.00000000       0.00000000       0.00000000
Au      30.29245451      20.82066281      30.00000000       0.00000000       0.00000000       0.00000000
Au      33.17745017      20.82066281      30.00000000       0.00000000       0.00000000       0.00000000
Au      36.06244584      20.82066281      30.00000000       0.00000000       0.00000000       0.00000000
Au       0.00000000       1.66565303      32.35558910       0.00000000       0.00000000       0.00000000
Au       2.88499567       1.66565303      32.35558910       0.00000000       0.00000000       0.00000000
Au       5.76999133       1.66565303      32.35558910       0.00000000       0.00000000       0.00000000
Au       8.65498700       1.66565303      32.35558910       0.00000000       0.00000000       0.00000000
Au      11.53998267       1.66565303      32.35558910       0.00000000       0.00000000       0.00000000
Au      14.42497834       1.66565303      32.35558910       0.00000000       0.00000000       0.00000000
Au      17.30997400       1.66565303      32.35558910       0.00000000       0.00000000       0.00000000
Au      20.19496967       1.66565303      32.35558910       0.00000000       0.00000000       0.00000000
Au      23.07996534       1.66565303      32.35558910       0.00000000       0.00000000       0.00000000
Au       1.44249783       4.16413256      32.35558910       0.00000000       0.00000000       0.00000000
Au       4.32749350       4.16413256      32.35558910       0.00000000       0.00000000       0.00000000
Au       7.21248917       4.16413256      32.35558910       0.00000000       0.00000000       0.00000000
Au      10.09748484       4.16413256      32.35558910       0.00000000       0.00000000       0.00000000
Au      12.98248050       4.16413256      32.35558910       0.00000000       0.00000000       0.00000000
Au      15.86747617       4.16413256      32.35558910       0.00000000       0.00000000       0.00000000
Au      18.75247184       4.16413256      32.35558910       0.00000000       0.00000000       0.00000000
Au      21.63746750       4.16413256      32.35558910       0.00000000       0.00000000       0.00000000
Au      24.52246317       4.16413256      32.35558910       0.00000000       0.00000000       0.00000000
Au       2.88499567       6.66261210      32.35558910       0.00000000       0.00000000       0.00000000
Au       5.76999133       6.66261210      32.35558910       0.00000000       0.00000000       0.00000000
Au       8.65498700       6.66261210      32.35558910       0.00000000       0.00000000       0.00000000
Au      11.53998267       6.66261210      32.35558910       0.00000000       0.00000000       0.00000000
Au      14.42497834       6.66261210      32.35558910       0.00000000       0.00000000       0.00000000
Au      17.30997400       6.66261210      32.35558910       0.00000000       0.00000000       0.00000000
Au      20.19496967       6.66261210      32.35558910       0.00000000       0.00000000       0.00000000
Au      23.07996534       6.66261210      32.35558910       0.00000000       0.00000000       0.00000000
Au      25.96496101       6.66261210      32.35558910       0.00000000       0.00000000       0.00000000
Au       4.32749350       9.16109164      32.35558910       0.00000000       0.00000000       0.00000000
Au       7.21248917       9.16109164      32.35558910       0.00000000       0.00000000       0.00000000
Au      10.09748484       9.16109164      32.35558910       0.00000000       0.00000000       0.00000000
Au      12.98248050       9.16109164      32.35558910       0.00000000       0.00000000       0.00000000
Au      15.86747617       9.16109164      32.35558910       0.00000000       0.00000000       0.00000000
Au      18.75247184       9.16109164      32.35558910       0.00000000       0.00000000       0.00000000
Au      21.63746750       9.16109164      32.35558910       0.00000000       0.00000000       0.00000000
Au      24.52246317       9.16109164      32.35558910       0.00000000       0.00000000       0.00000000
Au      27.40745884       9.16109164      32.35558910       0.00000000       0.00000000       0.00000000
Au       5.76999133      11.65957118      32.35558910       0.00000000       0.00000000       0.00000000
Au       8.65498700      11.65957118      32.35558910       0.00000000       0.00000000       0.00000000
Au      11.53998267      11.65957118      32.35558910       0.00000000       0.00000000       0.00000000
Au      14.42497834      11.65957118      32.35558910       0.00000000       0.00000000       0.00000000
Au      17.30997400      11.65957118      32.35558910       0.00000000       0.00000000       0.00000000
Au      20.19496967      11.65957118      32.35558910       0.00000000       0.00000000       0.00000000
Au      23.07996534      11.65957118      32.35558910       0.00000000       0.00000000       0.00000000
Au      25.96496101      11.65957118      32.35558910       0.00000000       0.00000000       0.00000000
Au      28.84995667      11.65957118      32.35558910       0.00000000       0.00000000       0.00000000
Au       7.21248917      14.15805071      32.35558910       0.00000000       0.00000000       0.00000000
Au      10.09748484      14.15805071      32.35558910       0.00000000       0.00000000       0.00000000
Au      12.98248050      14.15805071      32.35558910       0.00000000       0.00000000       0.00000000
Au      15.86747617      14.15805071      32.35558910       0.00000000       0.00000000       0.00000000
Au      18.75247184      14.15805071      32.35558910       0.00000000       0.00000000       0.00000000
Au      21.63746750      14.15805071      32.35558910       0.00000000       0.00000000       0.00000000
Au      24.52246317      14.15805071      32.35558910       0.00000000       0.00000000       0.00000000
Au      27.40745884      14.15805071      32.35558910       0.00000000       0.00000000       0.00000000
Au      30.29245451      14.15805071      32.35558910       0.00000000       0.00000000       0.00000000
Au       8.65498700      16.65653025      32.35558910       0.00000000       0.00000000       0.00000000
Au      11.53998267      16.65653025      32.35558910       0.00000000       0.00000000       0.00000000
Au      14.42497834      16.65653025      32.35558910       0.00000000       0.00000000       0.00000000
Au      17.30997400      16.65653025      32.35558910       0.00000000       0.00000000       0.00000000
Au      20.19496967      16.65653025      32.35558910       0.00000000       0.00000000       0.00000000
Au      23.07996534      16.65653025      32.35558910       0.00000000       0.00000000       0.00000000
Au      25.96496101      16.65653025      32.35558910       0.00000000       0.00000000       0.00000000
Au      28.84995667      16.65653025      32.35558910       0.00000000       0.00000000       0.00000000
Au      31.73495234      16.65653025      32.35558910       0.00000000       0.00000000       0.00000000
Au      10.09748484      19.15500979      32.35558910       0.00000000       0.00000000       0.00000000
Au      12.98248050      19.15500979      32.35558910       0.00000000       0.00000000       0.00000000
Au      15.86747617      19.15500979      32.35558910       0.00000000       0.00000000       0.00000000
Au      18.75247184      19.15500979      32.35558910       0.00000000       0.00000000       0.00000000
Au      21.63746750      19.15500979      32.35558910       0.00000000       0.00000000       0.00000000
Au      24.52246317      19.15500979      32.35558910       0.00000000       0.00000000       0.00000000
Au      27.40745884      19.15500979      32.35558910       0.00000000       0.00000000       0.00000000
Au      30.29245451      19.15500979      32.35558910       0.00000000       0.00000000       0.00000000
Au      33.17745017      19.15500979      32.35558910       0.00000000       0.00000000       0.00000000
Au      11.53998267      21.65348933      32.35558910       0.00000000       0.00000000       0.00000000
Au      14.42497834      21.65348933      32.35558910       0.00000000       0.00000000       0.00000000
Au      17.30997400      21.65348933      32.35558910       0.00000000       0.00000000       0.00000000
Au      20.19496967      21.65348933      32.35558910       0.00000000       0.00000000       0.00000000
Au      23.07996534      21.65348933      32.35558910       0.00000000       0.00000000       0.00000000
Au      25.96496101      21.65348933      32.35558910       0.00000000       0.00000000       0.00000000
Au      28.84995667      21.65348933      32.35558910       0.00000000       0.00000000       0.00000000
Au      31.73495234      21.65348933      32.35558910       0.00000000       0.00000000       0.00000000
Au      34.61994801      21.65348933      32.35558910       0.00000000       0.00000000       0.00000000
Au      -0.01303895       0.00964443      34.83314941      -0.00078060      -0.00060999       0.00107514
Au       2.89540377       0.01251257      34.85323772       0.00048617       0.00024101       0.00056993
Au       5.77311858      -0.00361042      34.86421655      -0.00010091      -0.00061379      -0.00000405
Au       8.64509518       0.00904984      34.86815034      -0.00177360      -0.00155964       0.00028569
Au      11.55449471       0.00495293      34.85886609       0.00212055       0.00207637       0.00074260
Au      14.42244619      -0.01783318      34.85777916       0.00026907       0.00069356       0.00050163
Au      17.29797963       0.00375419      34.86347708      -0.00135579      -0.00153430       0.00037633
Au      20.20637280       0.01823043      34.86757983       0.00119553      -0.00047924       0.00091772
Au      23.07874139      -0.01002603      34.85340484       0.00088815      -0.00036498       0.00047536
Au       1.44490719       2.48418786      34.85278551       0.00096986      -0.00029634       0.00009241
Au       4.30922482       2.50264477      34.88227231      -0.00075449      -0.00279068       0.00014979
Au       7.22203345       2.50859914      34.86984243       0.00008556       0.00205147       0.00038383
Au      10.09296560       2.47777736      34.85946995       0.00115105       0.00246636       0.00008542
Au      12.97184707       2.50845423      34.85606233      -0.00139464      -0.00217009       0.00007598
Au      15.88230478       2.50154605      34.85706688       0.00088209       0.00217721      -0.00044251
Au      18.75561079       2.48010396      34.86687983       0.00016126       0.00216677      -0.00062207
Au      21.63284663       2.50308853      34.88494596      -0.00191032      -0.00107046       0.00071407
Au      24.53091279       2.50322467      34.85278009       0.00070460      -0.00071174       0.00158571
Au       2.90546630       5.00055151      34.86505719      -0.00251993       0.00118889       0.00028729
Au       5.76761580       4.97503306      34.86743266       0.00379104       0.00155208      -0.00014177
Au       8.64008432       5.00581688      34.85953945      -0.00156053      -0.00269956      -0.00000785
Au      11.54441497       5.00094565      34.85505427      -0.00112173      -0.00067535      -0.00010970
Au      14.42858339       4.98095386      34.85394701       0.00044476      -0.00115305       0.00021889
Au      17.30209010       5.00330745      34.86073231       0.00119498      -0.00224190       0.00005797
Au      20.21302735       5.00162340      34.86653759      -0.00225552       0.00122317      -0.00015408
Au      23.06843689       4.97807833      34.86752437       0.00177509       0.00092585       0.00071632
Au      25.95589787       5.00548064      34.81069741      -0.00007818       0.00002968       0.00128766
Au       4.31225178       7.49743285      34.86547529       0.00150855       0.00001676       0.00013542
Au       7.22193567       7.50207876      34.85850663      -0.00200663       0.00031924      -0.00040765
Au      10.09101051       7.48053708      34.85670780       0.00151919       0.00103927       0.00032884
Au      12.97219630       7.50240981      34.85255834      -0.00093215      -0.00005501       0.00022325
Au      15.88384265       7.49974684      34.85401610      -0.00042520       0.00145705      -0.00016469
Au      18.75560129       7.48081494      34.85671454       0.00069216      -0.00131877       0.00034847
Au      21.63038813       7.50620650      34.86370102      -0.00046040      -0.00025536      -0.00018662
Au      24.52553902       7.49622591      34.84845138      -0.00137301       0.00035898       0.00021352
Au      27.41497266       7.48232625      34.84709590       0.00110606      -0.00169041       0.00101124
Au       5.76814531       9.97665866      34.86165110      -0.00077717      -0.00285064       0.00016547
Au       8.64145659      10.00356153      34.85875221      -0.00037477      -0.00069164       0.00013766
Au      11.55053937      10.00549615      34.85684099      -0.00001642       0.00006776      -0.00021405
Au      14.42220943       9.98780801      34.85527102       0.00089075       0.00070997      -0.00081590
Au      17.29768950      10.00127107      34.85645338      -0.00055006      -0.00009297      -0.00035972
Au      20.20931962      10.00337513      34.85831370       0.00093448       0.00058161      -0.00004943
Au      23.08161099       9.98087526      34.86120638      -0.00046432      -0.00027296       0.00068922
Au      25.95515332      10.00143698      34.85319511      -0.00128522       0.00030924       0.00088875
Au      28.86482024      10.00333545      34.85844655       0.00198608       0.00108100       0.00031246
Au       7.22648859      12.50074976      34.86141948       0.00351641       0.00207061       0.00059191
Au      10.09509670      12.48062302      34.85843714      -0.00075445       0.00057942      -0.00032133
Au      12.96883698      12.50372283      34.85952303      -0.00042678      -0.00309448       0.00021601
Au      15.88328023      12.50524176      34.85931907       0.00101477      -0.00087382       0.00004647
Au      18.75388079      12.47648994      34.85946727      -0.00060503      -0.00024649       0.00013291
Au      21.62240735      12.50125801      34.85928460      -0.00112461      -0.00150808       0.00019269
Au      24.53095469      12.49965371      34.86263376       0.00128087       0.00114389       0.00025455
Au      27.40516463      12.47888664      34.85834095       0.00042144       0.00229874      -0.00008400
Au      30.28717131      12.49790213      34.85841045      -0.00319370      -0.00015804       0.00064287
Au       8.64705832      15.00529266      34.86548984       0.00100608      -0.00233963      -0.00014966
Au      11.55859850      15.00185003      34.86770534      -0.00191093       0.00242533      -0.00006011
Au      14.41860996      14.97708448      34.86989734       0.00235491       0.00231751       0.00043015
Au      17.29851364      14.99800241      34.86805242      -0.00218831      -0.00146183       0.00034068
Au      20.20717162      14.99787730      34.85964315       0.00123344       0.00029351       0.00054167
Au      23.07967005      14.97439665      34.86090781       0.00057552       0.00139285      -0.00005188
Au      25.95091957      15.00136442      34.86584993      -0.00055591      -0.00414097       0.00037730
Au      28.86100068      14.99861489      34.85832062      -0.00015703      -0.00065225      -0.00035642
Au      31.73345891      14.97334085      34.85843245      -0.00038836       0.00012077       0.00015910
Au      10.10322565      17.47007052      34.86470371       0.00187946      -0.00091179       0.00051764
Au      12.97159339      17.50551008      34.88206479      -0.00064472      -0.00245893       0.00029390
Au      15.87289466      17.48737698      34.86379196      -0.00113953      -0.00108691       0.00017141
Au      18.74466746      17.46582057      34.84900826       0.00057365      -0.00016426       0.00087304
Au      21.62721763      17.49632963      34.85190124       0.00285133      -0.00085054      -0.00015954
Au      24.53775246      17.49712586      34.86113689      -0.00399977       0.00219638      -0.00006087
Au      27.40357505      17.47852797      34.86260114       0.00319996       0.00182169       0.00040290
Au      30.28238682      17.49647765      34.85312843      -0.00133024      -0.00059240       0.00026124
Au      33.19299238      17.48816851      34.84737769      -0.00097336       0.00100552       0.00006121
Au      11.55409780      19.99200851      34.85233961       0.00001978       0.00084737       0.00108601
Au      14.41810792      19.97244138      34.85285713       0.00071975       0.00109643       0.00054218
Au      17.30231005      19.99379874      34.80868938      -0.00103427       0.00095335       0.00099307
Au      20.21192362      20.00525535      34.84934817      -0.00005645       0.00192819       0.00049573
Au      23.07841028      19.97316223      34.85984589       0.00087714      -0.00294678      -0.00008214
Au      25.95170659      19.99914164      34.85932020      -0.00044628      -0.00152104       0.00019123
Au      28.86309123      19.99196981      34.86133994      -0.00044023      -0.00046130       0.00038417
Au      31.73411154      19.98509780      34.84877672       0.00100342      -0.00000354       0.00043510
Au      34.60899042      19.99353157      34.81131275      -0.00085134       0.00053041       0.00107491
Br      -6.59872955      -3.82165006      38.12226858      -0.00104317      -0.00188877      -0.00016043
Br       0.00722749       7.62499782      38.12181289       0.00114448       0.00158933      -0.00013230
Br       6.60007210      -3.81450505      38.10554784       0.00131086      -0.00065671      -0.00107670
C       -1.22893558      -0.70874047      38.06399268      -0.00009409      -0.00000335       0.00030687
C       -0.00102213       1.41806819      38.06440951       0.00003363       0.00051219       0.00013910
C        1.22653298      -0.70857622      38.06026151       0.00022391      -0.00013322      -0.00155802
C       -1.20226854       0.69374551      38.06050744      -0.00054832      -0.00007507       0.00088635
C       -0.00131727      -1.38659237      38.05561053      -0.00041884       0.00002702       0.00324893
C        1.19989180       0.69384412      38.05691924      -0.00010681       0.00011846       0.00077518
C       -2.51356928      -1.45217336      38.05920090      -0.00031392      -0.00047351      -0.00041859
C        0.00010993       2.90237705      38.05868198       0.00015369      -0.00010754      -0.00041730
C        2.51151282      -1.45096352      38.05531578      -0.00038774       0.00017946      -0.00078501
C       -3.75337012      -0.78519043      38.04992038       0.00028623      -0.00128741      -0.00136253
C       -1.19766670       3.64215158      38.04704130       0.00092986       0.00121508      -0.00090930
C        3.75065479      -0.78221661      38.04353534      -0.00071625      -0.00045996      -0.00116216
C       -2.55136921      -2.85964235      38.03957387      -0.00002316       0.00082279      -0.00776345
C        1.19980876       3.63934976      38.04021386      -0.00050133      -0.00016098      -0.00643184
C        2.55068553      -2.85848315      38.04009655       0.00048375       0.00040465      -0.00196032
C       -4.96459917      -1.47405623      38.06084712      -0.00077078      -0.00089014       0.00529743
C       -1.20729424       5.03559540      38.05773930       0.00005458      -0.00007237       0.00639204
C        4.96255143      -1.46971733      38.05265153       0.00060940      -0.00019430       0.00017218
C       -3.75137418      -3.56806024      38.05009773      -0.00073469      -0.00080927       0.00453606
C        1.21273950       5.03283580      38.05066780       0.00037322       0.00062696       0.00416273
C        3.75136942      -3.56541569      38.04905827      -0.00021230      -0.00037803       0.00172453
C       -4.95592258      -2.86770564      38.08366441       0.00247927       0.00000374       0.00025200
C        0.00362515       5.72536562      38.08269153       0.00145695      -0.00202661       0.00021807
C        4.95506673      -2.86331304      38.07550625      -0.00211284       0.00147531      -0.00054209
H       -2.14134072       1.23588139      38.05591632      -0.00057187       0.00028170      -0.00012164
H       -0.00113026      -2.47073834      38.04764218      -0.00014493       0.00016362      -0.00068145
H        2.13895309       1.23572122      38.04985014      -0.00028296      -0.00006798      -0.00116364
H       -3.80149029       0.30098747      38.02708683      -0.00104938       0.00038758       0.00197741
H       -2.16220914       3.14047200      38.02272963      -0.00081423       0.00055958       0.00192544
H        3.79732413       0.30396255      38.02086752       0.00037771       0.00048604       0.00048457
H       -1.63324554      -3.44164556      38.01006758      -0.00025790      -0.00061445      -0.00085887
H        2.16314337       3.13560968      38.01201657       0.00038578       0.00034825      -0.00068449
H        1.63295263      -3.44120895      38.01468991      -0.00027305      -0.00059614       0.00037507
H       -5.90487396      -0.92659924      38.04696939      -0.00042601      -0.00066610      -0.00072573
H       -2.15177305       5.57573365      38.04249478       0.00035087       0.00066843      -0.00114733
H        5.90249127      -0.92181214      38.03570309      -0.00011832       0.00003644      -0.00041169
H       -3.74432408      -4.65595501      38.02846686       0.00044547      -0.00023855      -0.00180843
H        2.15823472       5.57102565      38.03030188       0.00039887      -0.00030749      -0.00193105