285
Lattice="25.96496100517003 0.0 0.0 12.982480502585014 22.486315838749576 0.0 0.0 0.0 64.71117819658734" Properties=species:S:1:pos:R:3:tags:I:1:forces:R:3 pbc="T T F"
Au       1.44249783       0.83282651      30.00000000        3       0.00000000       0.00000000       0.00000000
Au       4.32749350       0.83282651      30.00000000        3       0.00000000       0.00000000       0.00000000
Au       7.21248917       0.83282651      30.00000000        3       0.00000000       0.00000000       0.00000000
Au      10.09748484       0.83282651      30.00000000        3       0.00000000       0.00000000       0.00000000
Au      12.98248050       0.83282651      30.00000000        3       0.00000000       0.00000000       0.00000000
Au      15.86747617       0.83282651      30.00000000        3       0.00000000       0.00000000       0.00000000
Au      18.75247184       0.83282651      30.00000000        3       0.00000000       0.00000000       0.00000000
Au      21.63746750       0.83282651      30.00000000        3       0.00000000       0.00000000       0.00000000
Au      24.52246317       0.83282651      30.00000000        3       0.00000000       0.00000000       0.00000000
Au       2.88499567       3.33130605      30.00000000        3       0.00000000       0.00000000       0.00000000
Au       5.76999133       3.33130605      30.00000000        3       0.00000000       0.00000000       0.00000000
Au       8.65498700       3.33130605      30.00000000        3       0.00000000       0.00000000       0.00000000
Au      11.53998267       3.33130605      30.00000000        3       0.00000000       0.00000000       0.00000000
Au      14.42497834       3.33130605      30.00000000        3       0.00000000       0.00000000       0.00000000
Au      17.30997400       3.33130605      30.00000000        3       0.00000000       0.00000000       0.00000000
Au      20.19496967       3.33130605      30.00000000        3       0.00000000       0.00000000       0.00000000
Au      23.07996534       3.33130605      30.00000000        3       0.00000000       0.00000000       0.00000000
Au      25.96496101       3.33130605      30.00000000        3       0.00000000       0.00000000       0.00000000
Au       4.32749350       5.82978559      30.00000000        3       0.00000000       0.00000000       0.00000000
Au       7.21248917       5.82978559      30.00000000        3       0.00000000       0.00000000       0.00000000
Au      10.09748484       5.82978559      30.00000000        3       0.00000000       0.00000000       0.00000000
Au      12.98248050       5.82978559      30.00000000        3       0.00000000       0.00000000       0.00000000
Au      15.86747617       5.82978559      30.00000000        3       0.00000000       0.00000000       0.00000000
Au      18.75247184       5.82978559      30.00000000        3       0.00000000       0.00000000       0.00000000
Au      21.63746750       5.82978559      30.00000000        3       0.00000000       0.00000000       0.00000000
Au      24.52246317       5.82978559      30.00000000        3       0.00000000       0.00000000       0.00000000
Au      27.40745884       5.82978559      30.00000000        3       0.00000000       0.00000000       0.00000000
Au       5.76999133       8.32826513      30.00000000        3       0.00000000       0.00000000       0.00000000
Au       8.65498700       8.32826513      30.00000000        3       0.00000000       0.00000000       0.00000000
Au      11.53998267       8.32826513      30.00000000        3       0.00000000       0.00000000       0.00000000
Au      14.42497834       8.32826513      30.00000000        3       0.00000000       0.00000000       0.00000000
Au      17.30997400       8.32826513      30.00000000        3       0.00000000       0.00000000       0.00000000
Au      20.19496967       8.32826513      30.00000000        3       0.00000000       0.00000000       0.00000000
Au      23.07996534       8.32826513      30.00000000        3       0.00000000       0.00000000       0.00000000
Au      25.96496101       8.32826513      30.00000000        3       0.00000000       0.00000000       0.00000000
Au      28.84995667       8.32826513      30.00000000        3       0.00000000       0.00000000       0.00000000
Au       7.21248917      10.82674466      30.00000000        3       0.00000000       0.00000000       0.00000000
Au      10.09748484      10.82674466      30.00000000        3       0.00000000       0.00000000       0.00000000
Au      12.98248050      10.82674466      30.00000000        3       0.00000000       0.00000000       0.00000000
Au      15.86747617      10.82674466      30.00000000        3       0.00000000       0.00000000       0.00000000
Au      18.75247184      10.82674466      30.00000000        3       0.00000000       0.00000000       0.00000000
Au      21.63746750      10.82674466      30.00000000        3       0.00000000       0.00000000       0.00000000
Au      24.52246317      10.82674466      30.00000000        3       0.00000000       0.00000000       0.00000000
Au      27.40745884      10.82674466      30.00000000        3       0.00000000       0.00000000       0.00000000
Au      30.29245451      10.82674466      30.00000000        3       0.00000000       0.00000000       0.00000000
Au       8.65498700      13.32522420      30.00000000        3       0.00000000       0.00000000       0.00000000
Au      11.53998267      13.32522420      30.00000000        3       0.00000000       0.00000000       0.00000000
Au      14.42497834      13.32522420      30.00000000        3       0.00000000       0.00000000       0.00000000
Au      17.30997400      13.32522420      30.00000000        3       0.00000000       0.00000000       0.00000000
Au      20.19496967      13.32522420      30.00000000        3       0.00000000       0.00000000       0.00000000
Au      23.07996534      13.32522420      30.00000000        3       0.00000000       0.00000000       0.00000000
Au      25.96496101      13.32522420      30.00000000        3       0.00000000       0.00000000       0.00000000
Au      28.84995667      13.32522420      30.00000000        3       0.00000000       0.00000000       0.00000000
Au      31.73495234      13.32522420      30.00000000        3       0.00000000       0.00000000       0.00000000
Au      10.09748484      15.82370374      30.00000000        3       0.00000000       0.00000000       0.00000000
Au      12.98248050      15.82370374      30.00000000        3       0.00000000       0.00000000       0.00000000
Au      15.86747617      15.82370374      30.00000000        3       0.00000000       0.00000000       0.00000000
Au      18.75247184      15.82370374      30.00000000        3       0.00000000       0.00000000       0.00000000
Au      21.63746750      15.82370374      30.00000000        3       0.00000000       0.00000000       0.00000000
Au      24.52246317      15.82370374      30.00000000        3       0.00000000       0.00000000       0.00000000
Au      27.40745884      15.82370374      30.00000000        3       0.00000000       0.00000000       0.00000000
Au      30.29245451      15.82370374      30.00000000        3       0.00000000       0.00000000       0.00000000
Au      33.17745017      15.82370374      30.00000000        3       0.00000000       0.00000000       0.00000000
Au      11.53998267      18.32218328      30.00000000        3       0.00000000       0.00000000       0.00000000
Au      14.42497834      18.32218328      30.00000000        3       0.00000000       0.00000000       0.00000000
Au      17.30997400      18.32218328      30.00000000        3       0.00000000       0.00000000       0.00000000
Au      20.19496967      18.32218328      30.00000000        3       0.00000000       0.00000000       0.00000000
Au      23.07996534      18.32218328      30.00000000        3       0.00000000       0.00000000       0.00000000
Au      25.96496101      18.32218328      30.00000000        3       0.00000000       0.00000000       0.00000000
Au      28.84995667      18.32218328      30.00000000        3       0.00000000       0.00000000       0.00000000
Au      31.73495234      18.32218328      30.00000000        3       0.00000000       0.00000000       0.00000000
Au      34.61994801      18.32218328      30.00000000        3       0.00000000       0.00000000       0.00000000
Au      12.98248050      20.82066281      30.00000000        3       0.00000000       0.00000000       0.00000000
Au      15.86747617      20.82066281      30.00000000        3       0.00000000       0.00000000       0.00000000
Au      18.75247184      20.82066281      30.00000000        3       0.00000000       0.00000000       0.00000000
Au      21.63746750      20.82066281      30.00000000        3       0.00000000       0.00000000       0.00000000
Au      24.52246317      20.82066281      30.00000000        3       0.00000000       0.00000000       0.00000000
Au      27.40745884      20.82066281      30.00000000        3       0.00000000       0.00000000       0.00000000
Au      30.29245451      20.82066281      30.00000000        3       0.00000000       0.00000000       0.00000000
Au      33.17745017      20.82066281      30.00000000        3       0.00000000       0.00000000       0.00000000
Au      36.06244584      20.82066281      30.00000000        3       0.00000000       0.00000000       0.00000000
Au       0.00000000       1.66565303      32.35558910        2       0.00000000       0.00000000       0.00000000
Au       2.88499567       1.66565303      32.35558910        2       0.00000000       0.00000000       0.00000000
Au       5.76999133       1.66565303      32.35558910        2       0.00000000       0.00000000       0.00000000
Au       8.65498700       1.66565303      32.35558910        2       0.00000000       0.00000000       0.00000000
Au      11.53998267       1.66565303      32.35558910        2       0.00000000       0.00000000       0.00000000
Au      14.42497834       1.66565303      32.35558910        2       0.00000000       0.00000000       0.00000000
Au      17.30997400       1.66565303      32.35558910        2       0.00000000       0.00000000       0.00000000
Au      20.19496967       1.66565303      32.35558910        2       0.00000000       0.00000000       0.00000000
Au      23.07996534       1.66565303      32.35558910        2       0.00000000       0.00000000       0.00000000
Au       1.44249783       4.16413256      32.35558910        2       0.00000000       0.00000000       0.00000000
Au       4.32749350       4.16413256      32.35558910        2       0.00000000       0.00000000       0.00000000
Au       7.21248917       4.16413256      32.35558910        2       0.00000000       0.00000000       0.00000000
Au      10.09748484       4.16413256      32.35558910        2       0.00000000       0.00000000       0.00000000
Au      12.98248050       4.16413256      32.35558910        2       0.00000000       0.00000000       0.00000000
Au      15.86747617       4.16413256      32.35558910        2       0.00000000       0.00000000       0.00000000
Au      18.75247184       4.16413256      32.35558910        2       0.00000000       0.00000000       0.00000000
Au      21.63746750       4.16413256      32.35558910        2       0.00000000       0.00000000       0.00000000
Au      24.52246317       4.16413256      32.35558910        2       0.00000000       0.00000000       0.00000000
Au       2.88499567       6.66261210      32.35558910        2       0.00000000       0.00000000       0.00000000
Au       5.76999133       6.66261210      32.35558910        2       0.00000000       0.00000000       0.00000000
Au       8.65498700       6.66261210      32.35558910        2       0.00000000       0.00000000       0.00000000
Au      11.53998267       6.66261210      32.35558910        2       0.00000000       0.00000000       0.00000000
Au      14.42497834       6.66261210      32.35558910        2       0.00000000       0.00000000       0.00000000
Au      17.30997400       6.66261210      32.35558910        2       0.00000000       0.00000000       0.00000000
Au      20.19496967       6.66261210      32.35558910        2       0.00000000       0.00000000       0.00000000
Au      23.07996534       6.66261210      32.35558910        2       0.00000000       0.00000000       0.00000000
Au      25.96496101       6.66261210      32.35558910        2       0.00000000       0.00000000       0.00000000
Au       4.32749350       9.16109164      32.35558910        2       0.00000000       0.00000000       0.00000000
Au       7.21248917       9.16109164      32.35558910        2       0.00000000       0.00000000       0.00000000
Au      10.09748484       9.16109164      32.35558910        2       0.00000000       0.00000000       0.00000000
Au      12.98248050       9.16109164      32.35558910        2       0.00000000       0.00000000       0.00000000
Au      15.86747617       9.16109164      32.35558910        2       0.00000000       0.00000000       0.00000000
Au      18.75247184       9.16109164      32.35558910        2       0.00000000       0.00000000       0.00000000
Au      21.63746750       9.16109164      32.35558910        2       0.00000000       0.00000000       0.00000000
Au      24.52246317       9.16109164      32.35558910        2       0.00000000       0.00000000       0.00000000
Au      27.40745884       9.16109164      32.35558910        2       0.00000000       0.00000000       0.00000000
Au       5.76999133      11.65957118      32.35558910        2       0.00000000       0.00000000       0.00000000
Au       8.65498700      11.65957118      32.35558910        2       0.00000000       0.00000000       0.00000000
Au      11.53998267      11.65957118      32.35558910        2       0.00000000       0.00000000       0.00000000
Au      14.42497834      11.65957118      32.35558910        2       0.00000000       0.00000000       0.00000000
Au      17.30997400      11.65957118      32.35558910        2       0.00000000       0.00000000       0.00000000
Au      20.19496967      11.65957118      32.35558910        2       0.00000000       0.00000000       0.00000000
Au      23.07996534      11.65957118      32.35558910        2       0.00000000       0.00000000       0.00000000
Au      25.96496101      11.65957118      32.35558910        2       0.00000000       0.00000000       0.00000000
Au      28.84995667      11.65957118      32.35558910        2       0.00000000       0.00000000       0.00000000
Au       7.21248917      14.15805071      32.35558910        2       0.00000000       0.00000000       0.00000000
Au      10.09748484      14.15805071      32.35558910        2       0.00000000       0.00000000       0.00000000
Au      12.98248050      14.15805071      32.35558910        2       0.00000000       0.00000000       0.00000000
Au      15.86747617      14.15805071      32.35558910        2       0.00000000       0.00000000       0.00000000
Au      18.75247184      14.15805071      32.35558910        2       0.00000000       0.00000000       0.00000000
Au      21.63746750      14.15805071      32.35558910        2       0.00000000       0.00000000       0.00000000
Au      24.52246317      14.15805071      32.35558910        2       0.00000000       0.00000000       0.00000000
Au      27.40745884      14.15805071      32.35558910        2       0.00000000       0.00000000       0.00000000
Au      30.29245451      14.15805071      32.35558910        2       0.00000000       0.00000000       0.00000000
Au       8.65498700      16.65653025      32.35558910        2       0.00000000       0.00000000       0.00000000
Au      11.53998267      16.65653025      32.35558910        2       0.00000000       0.00000000       0.00000000
Au      14.42497834      16.65653025      32.35558910        2       0.00000000       0.00000000       0.00000000
Au      17.30997400      16.65653025      32.35558910        2       0.00000000       0.00000000       0.00000000
Au      20.19496967      16.65653025      32.35558910        2       0.00000000       0.00000000       0.00000000
Au      23.07996534      16.65653025      32.35558910        2       0.00000000       0.00000000       0.00000000
Au      25.96496101      16.65653025      32.35558910        2       0.00000000       0.00000000       0.00000000
Au      28.84995667      16.65653025      32.35558910        2       0.00000000       0.00000000       0.00000000
Au      31.73495234      16.65653025      32.35558910        2       0.00000000       0.00000000       0.00000000
Au      10.09748484      19.15500979      32.35558910        2       0.00000000       0.00000000       0.00000000
Au      12.98248050      19.15500979      32.35558910        2       0.00000000       0.00000000       0.00000000
Au      15.86747617      19.15500979      32.35558910        2       0.00000000       0.00000000       0.00000000
Au      18.75247184      19.15500979      32.35558910        2       0.00000000       0.00000000       0.00000000
Au      21.63746750      19.15500979      32.35558910        2       0.00000000       0.00000000       0.00000000
Au      24.52246317      19.15500979      32.35558910        2       0.00000000       0.00000000       0.00000000
Au      27.40745884      19.15500979      32.35558910        2       0.00000000       0.00000000       0.00000000
Au      30.29245451      19.15500979      32.35558910        2       0.00000000       0.00000000       0.00000000
Au      33.17745017      19.15500979      32.35558910        2       0.00000000       0.00000000       0.00000000
Au      11.53998267      21.65348933      32.35558910        2       0.00000000       0.00000000       0.00000000
Au      14.42497834      21.65348933      32.35558910        2       0.00000000       0.00000000       0.00000000
Au      17.30997400      21.65348933      32.35558910        2       0.00000000       0.00000000       0.00000000
Au      20.19496967      21.65348933      32.35558910        2       0.00000000       0.00000000       0.00000000
Au      23.07996534      21.65348933      32.35558910        2       0.00000000       0.00000000       0.00000000
Au      25.96496101      21.65348933      32.35558910        2       0.00000000       0.00000000       0.00000000
Au      28.84995667      21.65348933      32.35558910        2       0.00000000       0.00000000       0.00000000
Au      31.73495234      21.65348933      32.35558910        2       0.00000000       0.00000000       0.00000000
Au      34.61994801      21.65348933      32.35558910        2       0.00000000       0.00000000       0.00000000
Au       0.00000000       0.00000000      34.71117820        1       0.00000000       0.00000000       0.00000000
Au       2.88499567       0.00000000      34.71117820        1       0.00000000       0.00000000       0.00000000
Au       5.76999133       0.00000000      34.71117820        1       0.00000000       0.00000000       0.00000000
Au       8.65498700       0.00000000      34.71117820        1       0.00000000       0.00000000       0.00000000
Au      11.53998267       0.00000000      34.71117820        1       0.00000000       0.00000000       0.00000000
Au      14.42497834       0.00000000      34.71117820        1       0.00000000       0.00000000       0.00000000
Au      17.30997400       0.00000000      34.71117820        1       0.00000000       0.00000000       0.00000000
Au      20.19496967       0.00000000      34.71117820        1       0.00000000       0.00000000       0.00000000
Au      23.07996534       0.00000000      34.71117820        1       0.00000000       0.00000000       0.00000000
Au       1.44249783       2.49847954      34.71117820        1       0.00000000       0.00000000       0.00000000
Au       4.32749350       2.49847954      34.71117820        1       0.00000000       0.00000000       0.00000000
Au       7.21248917       2.49847954      34.71117820        1       0.00000000       0.00000000       0.00000000
Au      10.09748484       2.49847954      34.71117820        1       0.00000000       0.00000000       0.00000000
Au      12.98248050       2.49847954      34.71117820        1       0.00000000       0.00000000       0.00000000
Au      15.86747617       2.49847954      34.71117820        1       0.00000000       0.00000000       0.00000000
Au      18.75247184       2.49847954      34.71117820        1       0.00000000       0.00000000       0.00000000
Au      21.63746750       2.49847954      34.71117820        1       0.00000000       0.00000000       0.00000000
Au      24.52246317       2.49847954      34.71117820        1       0.00000000       0.00000000       0.00000000
Au       2.88499567       4.99695908      34.71117820        1       0.00000000       0.00000000       0.00000000
Au       5.76999133       4.99695908      34.71117820        1       0.00000000       0.00000000       0.00000000
Au       8.65498700       4.99695908      34.71117820        1       0.00000000       0.00000000       0.00000000
Au      11.53998267       4.99695908      34.71117820        1       0.00000000       0.00000000       0.00000000
Au      14.42497834       4.99695908      34.71117820        1       0.00000000       0.00000000       0.00000000
Au      17.30997400       4.99695908      34.71117820        1       0.00000000       0.00000000       0.00000000
Au      20.19496967       4.99695908      34.71117820        1       0.00000000       0.00000000       0.00000000
Au      23.07996534       4.99695908      34.71117820        1       0.00000000       0.00000000       0.00000000
Au      25.96496101       4.99695908      34.71117820        1       0.00000000       0.00000000       0.00000000
Au       4.32749350       7.49543861      34.71117820        1       0.00000000       0.00000000       0.00000000
Au       7.21248917       7.49543861      34.71117820        1       0.00000000       0.00000000       0.00000000
Au      10.09748484       7.49543861      34.71117820        1       0.00000000       0.00000000       0.00000000
Au      12.98248050       7.49543861      34.71117820        1       0.00000000       0.00000000       0.00000000
Au      15.86747617       7.49543861      34.71117820        1       0.00000000       0.00000000       0.00000000
Au      18.75247184       7.49543861      34.71117820        1       0.00000000       0.00000000       0.00000000
Au      21.63746750       7.49543861      34.71117820        1       0.00000000       0.00000000       0.00000000
Au      24.52246317       7.49543861      34.71117820        1       0.00000000       0.00000000       0.00000000
Au      27.40745884       7.49543861      34.71117820        1       0.00000000       0.00000000       0.00000000
Au       5.76999133       9.99391815      34.71117820        1       0.00000000       0.00000000       0.00000000
Au       8.65498700       9.99391815      34.71117820        1       0.00000000       0.00000000       0.00000000
Au      11.53998267       9.99391815      34.71117820        1       0.00000000       0.00000000       0.00000000
Au      14.42497834       9.99391815      34.71117820        1       0.00000000       0.00000000       0.00000000
Au      17.30997400       9.99391815      34.71117820        1       0.00000000       0.00000000       0.00000000
Au      20.19496967       9.99391815      34.71117820        1       0.00000000       0.00000000       0.00000000
Au      23.07996534       9.99391815      34.71117820        1       0.00000000       0.00000000       0.00000000
Au      25.96496101       9.99391815      34.71117820        1       0.00000000       0.00000000       0.00000000
Au      28.84995667       9.99391815      34.71117820        1       0.00000000       0.00000000       0.00000000
Au       7.21248917      12.49239769      34.71117820        1       0.00000000       0.00000000       0.00000000
Au      10.09748484      12.49239769      34.71117820        1       0.00000000       0.00000000       0.00000000
Au      12.98248050      12.49239769      34.71117820        1       0.00000000       0.00000000       0.00000000
Au      15.86747617      12.49239769      34.71117820        1       0.00000000       0.00000000       0.00000000
Au      18.75247184      12.49239769      34.71117820        1       0.00000000       0.00000000       0.00000000
Au      21.63746750      12.49239769      34.71117820        1       0.00000000       0.00000000       0.00000000
Au      24.52246317      12.49239769      34.71117820        1       0.00000000       0.00000000       0.00000000
Au      27.40745884      12.49239769      34.71117820        1       0.00000000       0.00000000       0.00000000
Au      30.29245451      12.49239769      34.71117820        1       0.00000000       0.00000000       0.00000000
Au       8.65498700      14.99087723      34.71117820        1       0.00000000       0.00000000       0.00000000
Au      11.53998267      14.99087723      34.71117820        1       0.00000000       0.00000000       0.00000000
Au      14.42497834      14.99087723      34.71117820        1       0.00000000       0.00000000       0.00000000
Au      17.30997400      14.99087723      34.71117820        1       0.00000000       0.00000000       0.00000000
Au      20.19496967      14.99087723      34.71117820        1       0.00000000       0.00000000       0.00000000
Au      23.07996534      14.99087723      34.71117820        1       0.00000000       0.00000000       0.00000000
Au      25.96496101      14.99087723      34.71117820        1       0.00000000       0.00000000       0.00000000
Au      28.84995667      14.99087723      34.71117820        1       0.00000000       0.00000000       0.00000000
Au      31.73495234      14.99087723      34.71117820        1       0.00000000       0.00000000       0.00000000
Au      10.09748484      17.48935676      34.71117820        1       0.00000000       0.00000000       0.00000000
Au      12.98248050      17.48935676      34.71117820        1       0.00000000       0.00000000       0.00000000
Au      15.86747617      17.48935676      34.71117820        1       0.00000000       0.00000000       0.00000000
Au      18.75247184      17.48935676      34.71117820        1       0.00000000       0.00000000       0.00000000
Au      21.63746750      17.48935676      34.71117820        1       0.00000000       0.00000000       0.00000000
Au      24.52246317      17.48935676      34.71117820        1       0.00000000       0.00000000       0.00000000
Au      27.40745884      17.48935676      34.71117820        1       0.00000000       0.00000000       0.00000000
Au      30.29245451      17.48935676      34.71117820        1       0.00000000       0.00000000       0.00000000
Au      33.17745017      17.48935676      34.71117820        1       0.00000000       0.00000000       0.00000000
Au      11.53998267      19.98783630      34.71117820        1       0.00000000       0.00000000       0.00000000
Au      14.42497834      19.98783630      34.71117820        1       0.00000000       0.00000000       0.00000000
Au      17.30997400      19.98783630      34.71117820        1       0.00000000       0.00000000       0.00000000
Au      20.19496967      19.98783630      34.71117820        1       0.00000000       0.00000000       0.00000000
Au      23.07996534      19.98783630      34.71117820        1       0.00000000       0.00000000       0.00000000
Au      25.96496101      19.98783630      34.71117820        1       0.00000000       0.00000000       0.00000000
Au      28.84995667      19.98783630      34.71117820        1       0.00000000       0.00000000       0.00000000
Au      31.73495234      19.98783630      34.71117820        1       0.00000000       0.00000000       0.00000000
Au      34.61994801      19.98783630      34.71117820        1       0.00000000       0.00000000       0.00000000
Br      -6.61286209      -3.81820804      37.71117821        0      -0.00301661      -0.00189003       0.00000000
Br       0.00000552       7.63632179      37.71117821        0       0.00000412       0.00299896      -0.00000000
Br       6.61285513      -3.81824532      37.71117821        0       0.00290420      -0.00180746      -0.00000000
C       -1.22799308      -0.70875989      37.71117820        0      -0.00136230      -0.00079702       0.00000004
C        0.00000552       1.41822575      37.71117821        0      -0.00000101       0.00153619       0.00000001
C        1.22799780      -0.70876347      37.71117821        0       0.00136312      -0.00079770       0.00000001
C       -1.19977904       0.69293240      37.71117821        0       0.00248101      -0.00141457      -0.00000004
C        0.00000132      -1.38517645      37.71117821        0      -0.00000076       0.00293891      -0.00000005
C        1.19978827       0.69292909      37.71117821        0      -0.00248114      -0.00141228       0.00000001
C       -2.51752441      -1.45330885      37.71117820        0       0.00066004       0.00041942       0.00000017
C        0.00000628       2.90726530      37.71117821        0      -0.00000095      -0.00068523      -0.00000007
C        2.51752626      -1.45331773      37.71117821        0      -0.00066044       0.00041716      -0.00000003
C       -3.75697941      -0.78699648      37.71117822        0       0.00088011      -0.00156930      -0.00000014
C       -1.19680483       3.64745976      37.71117821        0       0.00175460       0.00004790       0.00000005
C        3.75698437      -0.78701123      37.71117821        0      -0.00087721      -0.00156963       0.00000003
C       -2.56006826      -2.85986798      37.71117822        0      -0.00096261       0.00142164      -0.00000014
C        1.19681757       3.64745918      37.71117821        0      -0.00175328       0.00004900       0.00000005
C        2.56006322      -2.85987723      37.71117821        0       0.00096682       0.00142735       0.00000003