363
Lattice="23.07996534 0.0 0.0 12.9824805 22.48631584 0.0 0.0 0.0 40.7111782" Properties=species:S:1:pos:R:3:momenta:R:3:forces:R:3 energy=-115817726.82892554 free_energy=-115817726.82892554 stress="0.003112527626474319 8.408876404926098e-05 -0.0001245684276740842 8.408876404926098e-05 0.003098021138527623 -0.00018567466428660504 -0.0001245684276740842 -0.00018567466428660504 -0.000783218751353096" pbc="T T T"
Au       1.44250000       0.83282700       0.00000000       0.00000000       0.00000000       0.00000000       0.00443457      -0.00225033      -0.00045137
Au       4.32749000       0.83282700       0.00000000       0.00000000       0.00000000       0.00000000      -0.00169004      -0.00009936       0.00001708
Au       7.21249000       0.83282700       0.00000000       0.00000000       0.00000000       0.00000000       0.00207263      -0.00113778       0.00133107
Au      10.09750000       0.83282700       0.00000000       0.00000000       0.00000000       0.00000000      -0.00409606      -0.00270474      -0.00024783
Au      12.98250000       0.83282700       0.00000000       0.00000000       0.00000000       0.00000000      -0.00016475      -0.00380435      -0.00350112
Au      15.86750000       0.83282700       0.00000000       0.00000000       0.00000000       0.00000000      -0.00237244      -0.00765688      -0.00746784
Au      18.75250000       0.83282700       0.00000000       0.00000000       0.00000000       0.00000000       0.00239649      -0.00540594      -0.00652823
Au      21.63750000       0.83282700       0.00000000       0.00000000       0.00000000       0.00000000       0.00075445      -0.00441558      -0.00313359
Au       2.88500000       3.33131000       0.00000000       0.00000000       0.00000000       0.00000000       0.00223189      -0.00060853      -0.00159862
Au       5.76999000       3.33131000       0.00000000       0.00000000       0.00000000       0.00000000      -0.00003499       0.00061458      -0.00130882
Au       8.65499000       3.33131000       0.00000000       0.00000000       0.00000000       0.00000000      -0.00290063      -0.00128692      -0.00301017
Au      11.54000000       3.33131000       0.00000000       0.00000000       0.00000000       0.00000000      -0.00058252       0.00024995      -0.00988942
Au      14.42500000       3.33131000       0.00000000       0.00000000       0.00000000       0.00000000      -0.00375917      -0.00181928      -0.01387459
Au      17.31000000       3.33131000       0.00000000       0.00000000       0.00000000       0.00000000       0.00241252       0.00175406      -0.01459518
Au      20.19500000       3.33131000       0.00000000       0.00000000       0.00000000       0.00000000       0.00122636      -0.00161808      -0.01378450
Au      23.08000000       3.33131000       0.00000000       0.00000000       0.00000000       0.00000000       0.00426652       0.00081621      -0.00873214
Au       4.32749000       5.82979000       0.00000000       0.00000000       0.00000000       0.00000000       0.00160031      -0.00244896       0.00076033
Au       7.21249000       5.82979000       0.00000000       0.00000000       0.00000000       0.00000000      -0.00355236      -0.00207434      -0.00171707
Au      10.09750000       5.82979000       0.00000000       0.00000000       0.00000000       0.00000000      -0.00138388      -0.00270284      -0.01265025
Au      12.98250000       5.82979000       0.00000000       0.00000000       0.00000000       0.00000000      -0.00660229      -0.00754120      -0.01596837
Au      15.86750000       5.82979000       0.00000000       0.00000000       0.00000000       0.00000000       0.00089426      -0.00673611      -0.01803358
Au      18.75250000       5.82979000       0.00000000       0.00000000       0.00000000       0.00000000      -0.00075860      -0.00911388      -0.01665122
Au      21.63750000       5.82979000       0.00000000       0.00000000       0.00000000       0.00000000       0.00799540      -0.00664397      -0.01387260
Au      24.52250000       5.82979000       0.00000000       0.00000000       0.00000000       0.00000000       0.00165688      -0.00351229      -0.00744420
Au       5.76999000       8.32827000       0.00000000       0.00000000       0.00000000       0.00000000      -0.00012132      -0.00062192      -0.00284175
Au       8.65499000       8.32827000       0.00000000       0.00000000       0.00000000       0.00000000      -0.00153992      -0.00025745      -0.01069120
Au      11.54000000       8.32827000       0.00000000       0.00000000       0.00000000       0.00000000      -0.00800283       0.00094153      -0.01507306
Au      14.42500000       8.32827000       0.00000000       0.00000000       0.00000000       0.00000000       0.00063522       0.00153932      -0.02560010
Au      17.31000000       8.32827000       0.00000000       0.00000000       0.00000000       0.00000000      -0.00203229       0.00120151      -0.03069010
Au      20.19500000       8.32827000       0.00000000       0.00000000       0.00000000       0.00000000       0.00443080       0.00206185      -0.02356264
Au      23.08000000       8.32827000       0.00000000       0.00000000       0.00000000       0.00000000       0.00698419      -0.00069221      -0.01337408
Au      25.96500000       8.32827000       0.00000000       0.00000000       0.00000000       0.00000000       0.00256748       0.00002415      -0.00768130
Au       7.21249000      10.82670000       0.00000000       0.00000000       0.00000000       0.00000000      -0.00224277       0.00055587      -0.00265290
Au      10.09750000      10.82670000       0.00000000       0.00000000       0.00000000       0.00000000      -0.00275303      -0.00197865      -0.01220723
Au      12.98250000      10.82670000       0.00000000       0.00000000       0.00000000       0.00000000      -0.00534100       0.00275716      -0.01613142
Au      15.86750000      10.82670000       0.00000000       0.00000000       0.00000000       0.00000000      -0.00158388      -0.00005092      -0.03114036
Au      18.75250000      10.82670000       0.00000000       0.00000000       0.00000000       0.00000000       0.00315410       0.00007725      -0.02914620
Au      21.63750000      10.82670000       0.00000000       0.00000000       0.00000000       0.00000000       0.00446980       0.00112556      -0.01485448
Au      24.52250000      10.82670000       0.00000000       0.00000000       0.00000000       0.00000000       0.00473003      -0.00177363      -0.01054421
Au      27.40750000      10.82670000       0.00000000       0.00000000       0.00000000       0.00000000       0.00056850      -0.00111883      -0.00159315
Au       8.65499000      13.32520000       0.00000000       0.00000000       0.00000000       0.00000000      -0.00475064       0.00278747      -0.00879944
Au      11.54000000      13.32520000       0.00000000       0.00000000       0.00000000       0.00000000      -0.00049340       0.00038552      -0.01333307
Au      14.42500000      13.32520000       0.00000000       0.00000000       0.00000000       0.00000000      -0.00501982       0.00506437      -0.01614651
Au      17.31000000      13.32520000       0.00000000       0.00000000       0.00000000       0.00000000       0.00022289       0.00343936      -0.02597427
Au      20.19500000      13.32520000       0.00000000       0.00000000       0.00000000       0.00000000       0.00676185       0.00361115      -0.01328893
Au      23.08000000      13.32520000       0.00000000       0.00000000       0.00000000       0.00000000       0.00025188       0.00222673      -0.01145636
Au      25.96500000      13.32520000       0.00000000       0.00000000       0.00000000       0.00000000       0.00353752       0.00223321      -0.00314629
Au      28.85000000      13.32520000       0.00000000       0.00000000       0.00000000       0.00000000      -0.00078035      -0.00083812      -0.00035997
Au      10.09750000      15.82370000       0.00000000       0.00000000       0.00000000       0.00000000      -0.00608102       0.00400676      -0.00694208
Au      12.98250000      15.82370000       0.00000000       0.00000000       0.00000000       0.00000000       0.00058146       0.00558503      -0.01243585
Au      15.86750000      15.82370000       0.00000000       0.00000000       0.00000000       0.00000000      -0.00301073       0.00778842      -0.01471594
Au      18.75250000      15.82370000       0.00000000       0.00000000       0.00000000       0.00000000       0.00296556       0.00928354      -0.01627454
Au      21.63750000      15.82370000       0.00000000       0.00000000       0.00000000       0.00000000       0.00168925       0.00171195      -0.01090895
Au      24.52250000      15.82370000       0.00000000       0.00000000       0.00000000       0.00000000       0.00361311       0.00433302      -0.00449904
Au      27.40750000      15.82370000       0.00000000       0.00000000       0.00000000       0.00000000      -0.00075405      -0.00022028       0.00259193
Au      30.29250000      15.82370000       0.00000000       0.00000000       0.00000000       0.00000000       0.00122056       0.00177359       0.00061700
Au      11.54000000      18.32220000       0.00000000       0.00000000       0.00000000       0.00000000       0.00015742       0.00115065      -0.00248591
Au      14.42500000      18.32220000       0.00000000       0.00000000       0.00000000       0.00000000      -0.00105477       0.00054602      -0.00883159
Au      17.31000000      18.32220000       0.00000000       0.00000000       0.00000000       0.00000000       0.00255046       0.00234435      -0.00866790
Au      20.19500000      18.32220000       0.00000000       0.00000000       0.00000000       0.00000000      -0.00196233       0.00175268      -0.00709340
Au      23.08000000      18.32220000       0.00000000       0.00000000       0.00000000       0.00000000       0.00306145       0.00077780       0.00070944
Au      25.96500000      18.32220000       0.00000000       0.00000000       0.00000000       0.00000000      -0.00150873      -0.00117293       0.00062630
Au      28.85000000      18.32220000       0.00000000       0.00000000       0.00000000       0.00000000       0.00029923       0.00039599       0.00181714
Au      31.73500000      18.32220000       0.00000000       0.00000000       0.00000000       0.00000000      -0.00074352      -0.00141999       0.00054802
Au      12.98250000      20.82070000       0.00000000       0.00000000       0.00000000       0.00000000      -0.00169948       0.00324727      -0.00142622
Au      15.86750000      20.82070000       0.00000000       0.00000000       0.00000000       0.00000000       0.00176390       0.00433831      -0.00030745
Au      18.75250000      20.82070000       0.00000000       0.00000000       0.00000000       0.00000000      -0.00082550       0.00261224      -0.00108096
Au      21.63750000      20.82070000       0.00000000       0.00000000       0.00000000       0.00000000       0.00187450       0.00455026      -0.00141479
Au      24.52250000      20.82070000       0.00000000       0.00000000       0.00000000       0.00000000      -0.00140145      -0.00052215       0.00060438
Au      27.40750000      20.82070000       0.00000000       0.00000000       0.00000000       0.00000000       0.00123022       0.00171871       0.00069759
Au      30.29250000      20.82070000       0.00000000       0.00000000       0.00000000       0.00000000      -0.00168626      -0.00050945       0.00121196
Au      33.17750000      20.82070000       0.00000000       0.00000000       0.00000000       0.00000000       0.00229532       0.00250279       0.00084066
Au      23.08000000       1.66565000       2.35559000       0.00000000       0.00000000       0.00000000       0.00606081      -0.00652834      -0.00534028
Au       2.88500000       1.66565000       2.35559000       0.00000000       0.00000000       0.00000000       0.00189197      -0.00151677       0.00091250
Au       5.76999000       1.66565000       2.35559000       0.00000000       0.00000000       0.00000000       0.00186750       0.00041838      -0.00553981
Au       8.65499000       1.66565000       2.35559000       0.00000000       0.00000000       0.00000000      -0.00279805      -0.00350663       0.00216087
Au      11.54000000       1.66565000       2.35559000       0.00000000       0.00000000       0.00000000      -0.00356464      -0.00610143      -0.00379115
Au      14.42500000       1.66565000       2.35559000       0.00000000       0.00000000       0.00000000      -0.00455791      -0.01026868       0.00516659
Au      17.31000000       1.66565000       2.35559000       0.00000000       0.00000000       0.00000000      -0.00292001      -0.00742260       0.00411848
Au      20.19500000       1.66565000       2.35559000       0.00000000       0.00000000       0.00000000       0.00421484      -0.01392648      -0.00118063
Au      24.52250000       4.16413000       2.35559000       0.00000000       0.00000000       0.00000000       0.00242923      -0.00229235       0.00114749
Au       4.32749000       4.16413000       2.35559000       0.00000000       0.00000000       0.00000000       0.00158311       0.00039241       0.00220311
Au       7.21249000       4.16413000       2.35559000       0.00000000       0.00000000       0.00000000      -0.00519265      -0.00248272      -0.00165510
Au      10.09750000       4.16413000       2.35559000       0.00000000       0.00000000       0.00000000      -0.00188383      -0.00397172       0.00477319
Au      12.98250000       4.16413000       2.35559000       0.00000000       0.00000000       0.00000000       0.00250980      -0.00370656       0.01981923
Au      15.86750000       4.16413000       2.35559000       0.00000000       0.00000000       0.00000000       0.00157529      -0.00246622       0.01588870
Au      18.75250000       4.16413000       2.35559000       0.00000000       0.00000000       0.00000000      -0.00712267       0.00202945       0.02674298
Au      21.63750000       4.16413000       2.35559000       0.00000000       0.00000000       0.00000000       0.00063315       0.00235439       0.02003817
Au      25.96500000       6.66261000       2.35559000       0.00000000       0.00000000       0.00000000       0.00764504      -0.00127022      -0.00574963
Au       5.76999000       6.66261000       2.35559000       0.00000000       0.00000000       0.00000000      -0.00283826      -0.00309862       0.00075644
Au       8.65499000       6.66261000       2.35559000       0.00000000       0.00000000       0.00000000      -0.00462978       0.00089348       0.00061943
Au      11.54000000       6.66261000       2.35559000       0.00000000       0.00000000       0.00000000      -0.00794125      -0.00240952       0.01259798
Au      14.42500000       6.66261000       2.35559000       0.00000000       0.00000000       0.00000000       0.00158420       0.00163894       0.01914608
Au      17.31000000       6.66261000       2.35559000       0.00000000       0.00000000       0.00000000      -0.00514904      -0.00869777       0.03459104
Au      20.19500000       6.66261000       2.35559000       0.00000000       0.00000000       0.00000000       0.00353508      -0.00289847       0.00173170
Au      23.08000000       6.66261000       2.35559000       0.00000000       0.00000000       0.00000000       0.00432209      -0.00479847       0.01699021
Au      27.40750000       9.16109000       2.35559000       0.00000000       0.00000000       0.00000000       0.00376663      -0.00162976      -0.00171244
Au       7.21249000       9.16109000       2.35559000       0.00000000       0.00000000       0.00000000      -0.00707044       0.00058654      -0.00058589
Au      10.09750000       9.16109000       2.35559000       0.00000000       0.00000000       0.00000000       0.00197852       0.00228863       0.01991642
Au      12.98250000       9.16109000       2.35559000       0.00000000       0.00000000       0.00000000      -0.00291592      -0.00153635       0.02357700
Au      15.86750000       9.16109000       2.35559000       0.00000000       0.00000000       0.00000000      -0.00860672      -0.00638753       0.04943530
Au      18.75250000       9.16109000       2.35559000       0.00000000       0.00000000       0.00000000       0.00819599       0.00233676       0.05864913
Au      21.63750000       9.16109000       2.35559000       0.00000000       0.00000000       0.00000000       0.00197205      -0.00310426       0.01685977
Au      24.52250000       9.16109000       2.35559000       0.00000000       0.00000000       0.00000000       0.00133178       0.00411129       0.01799009
Au      28.85000000      11.65960000       2.35559000       0.00000000       0.00000000       0.00000000      -0.00140125       0.00428134       0.00072534
Au       8.65499000      11.65960000       2.35559000       0.00000000       0.00000000       0.00000000      -0.00251454       0.00024395       0.00479074
Au      11.54000000      11.65960000       2.35559000       0.00000000       0.00000000       0.00000000      -0.00316070       0.00511376       0.01985752
Au      14.42500000      11.65960000       2.35559000       0.00000000       0.00000000       0.00000000      -0.01167224       0.00276496       0.02984617
Au      17.31000000      11.65960000       2.35559000       0.00000000       0.00000000       0.00000000       0.00265881       0.00988473       0.04776457
Au      20.19500000      11.65960000       2.35559000       0.00000000       0.00000000       0.00000000       0.00478132       0.00374341       0.02588623
Au      23.08000000      11.65960000       2.35559000       0.00000000       0.00000000       0.00000000      -0.00019858       0.00664814       0.00540170
Au      25.96500000      11.65960000       2.35559000       0.00000000       0.00000000       0.00000000       0.01124186       0.00145301      -0.00254044
Au      30.29250000      14.15810000       2.35559000       0.00000000       0.00000000       0.00000000      -0.00374693       0.00111316      -0.00239945
Au      10.09750000      14.15810000       2.35559000       0.00000000       0.00000000       0.00000000      -0.00694406       0.00014930       0.00368050
Au      12.98250000      14.15810000       2.35559000       0.00000000       0.00000000       0.00000000      -0.00242926      -0.00582483       0.01971277
Au      15.86750000      14.15810000       2.35559000       0.00000000       0.00000000       0.00000000       0.00400867       0.00217820       0.01560854
Au      18.75250000      14.15810000       2.35559000       0.00000000       0.00000000       0.00000000       0.00205076      -0.00186457       0.00578020
Au      21.63750000      14.15810000       2.35559000       0.00000000       0.00000000       0.00000000       0.00571914      -0.00558374       0.02483568
Au      24.52250000      14.15810000       2.35559000       0.00000000       0.00000000       0.00000000       0.00382913       0.00323669      -0.00074515
Au      27.40750000      14.15810000       2.35559000       0.00000000       0.00000000       0.00000000      -0.00239004       0.00063822       0.00117354
Au      31.73500000      16.65650000       2.35559000       0.00000000       0.00000000       0.00000000      -0.00462681       0.00473513       0.00214969
Au      11.54000000      16.65650000       2.35559000       0.00000000       0.00000000       0.00000000      -0.00309033       0.00983705      -0.00309221
Au      14.42500000      16.65650000       2.35559000       0.00000000       0.00000000       0.00000000      -0.00424348      -0.00154280       0.02726340
Au      17.31000000      16.65650000       2.35559000       0.00000000       0.00000000       0.00000000      -0.00127189       0.00313634       0.02082387
Au      20.19500000      16.65650000       2.35559000       0.00000000       0.00000000       0.00000000       0.00343543      -0.00026014       0.01556965
Au      23.08000000      16.65650000       2.35559000       0.00000000       0.00000000       0.00000000       0.00921348       0.00764184      -0.00238623
Au      25.96500000      16.65650000       2.35559000       0.00000000       0.00000000       0.00000000       0.00196705       0.00133238      -0.00034394
Au      28.85000000      16.65650000       2.35559000       0.00000000       0.00000000       0.00000000       0.00187792       0.00380595      -0.00518849
Au      33.17750000      19.15500000       2.35559000       0.00000000       0.00000000       0.00000000      -0.00024224      -0.00099461      -0.00363196
Au      12.98250000      19.15500000       2.35559000       0.00000000       0.00000000       0.00000000      -0.00251525       0.00242593       0.00007479
Au      15.86750000      19.15500000       2.35559000       0.00000000       0.00000000       0.00000000       0.00067704       0.00492927      -0.00476943
Au      18.75250000      19.15500000       2.35559000       0.00000000       0.00000000       0.00000000       0.00288372       0.00782650      -0.00230772
Au      21.63750000      19.15500000       2.35559000       0.00000000       0.00000000       0.00000000       0.00251962       0.00595444      -0.00612272
Au      24.52250000      19.15500000       2.35559000       0.00000000       0.00000000       0.00000000      -0.00057320      -0.00328357       0.00218957
Au      27.40750000      19.15500000       2.35559000       0.00000000       0.00000000       0.00000000       0.00067834      -0.00038482      -0.00431585
Au      30.29250000      19.15500000       2.35559000       0.00000000       0.00000000       0.00000000      -0.00276871      -0.00552174      -0.00082854
Au      34.61990000      21.65350000       2.35559000       0.00000000       0.00000000       0.00000000      -0.00188675      -0.00041982       0.00216005
Au      14.42500000      21.65350000       2.35559000       0.00000000       0.00000000       0.00000000       0.00111260       0.00352957      -0.00074140
Au      17.31000000      21.65350000       2.35559000       0.00000000       0.00000000       0.00000000      -0.00282343       0.00165402       0.00060352
Au      20.19500000      21.65350000       2.35559000       0.00000000       0.00000000       0.00000000       0.00192794       0.00216522       0.00003880
Au      23.08000000      21.65350000       2.35559000       0.00000000       0.00000000       0.00000000      -0.00000411       0.00088953       0.00107520
Au      25.96500000      21.65350000       2.35559000       0.00000000       0.00000000       0.00000000       0.00208629      -0.00119556      -0.00197882
Au      28.85000000      21.65350000       2.35559000       0.00000000       0.00000000       0.00000000       0.00055907      -0.00323315       0.00079054
Au      31.73500000      21.65350000       2.35559000       0.00000000       0.00000000       0.00000000       0.00031684       0.00026897      -0.00312406
Au      13.03710000      22.49370000       4.77751000       0.00000000       0.00000000       0.00000000      -0.00006354      -0.00013587       0.00014527
Au      15.88270000      22.49260000       4.78048000       0.00000000       0.00000000       0.00000000       0.00019512      -0.00044980      -0.00014021
Au       5.79483000       0.02024830       4.78418000       0.00000000       0.00000000       0.00000000      -0.00002317       0.00009802       0.00009686
Au      21.62740000      22.48910000       4.77538000       0.00000000       0.00000000       0.00000000      -0.00011360      -0.00021386       0.00013052
Au      11.53620000       0.01260320       4.78066000       0.00000000       0.00000000       0.00000000      -0.00001443      -0.00019774      -0.00009243
Au      14.39780000       0.01590480       4.77529000       0.00000000       0.00000000       0.00000000      -0.00023553      -0.00027716      -0.00001682
Au      30.30060000      22.46740000       4.77832000       0.00000000       0.00000000       0.00000000      -0.00029090      -0.00032936       0.00032908
Au      20.19500000       0.01513210       4.77375000       0.00000000       0.00000000       0.00000000      -0.00011118       0.00009242       0.00042377
Au      24.48090000       2.50038000       4.77744000       0.00000000       0.00000000       0.00000000       0.00092391      -0.00052202       0.00030973
Au       4.33840000       2.47775000       4.78036000       0.00000000       0.00000000       0.00000000       0.00007688       0.00003145       0.00001406
Au       7.18990000       2.50238000       4.77732000       0.00000000       0.00000000       0.00000000       0.00013027       0.00000901      -0.00011734
Au      10.12720000       2.50124000       4.77386000       0.00000000       0.00000000       0.00000000       0.00033594       0.00088185       0.00017333
Au      12.98500000       2.46221000       4.76221000       0.00000000       0.00000000       0.00000000      -0.00003175      -0.00052591      -0.00267740
Au      15.90250000       2.46839000       4.74381000       0.00000000       0.00000000       0.00000000       0.00030027       0.00183161       0.00285307
Au      18.73160000       2.44636000       4.73443000       0.00000000       0.00000000       0.00000000       0.00050940      -0.00104269      -0.00134624
Au      21.64280000       2.44593000       4.76888000       0.00000000       0.00000000       0.00000000      -0.00122567       0.00062872      -0.00005873
Au       2.94216000       4.99929000       4.78024000       0.00000000       0.00000000       0.00000000       0.00030362       0.00031012       0.00021582
Au       5.77397000       5.00150000       4.77723000       0.00000000       0.00000000       0.00000000       0.00009016      -0.00041778       0.00016837
Au       8.65749000       4.99882000       4.78147000       0.00000000       0.00000000       0.00000000       0.00021891       0.00003779       0.00031310
Au      11.52040000       4.99696000       4.72559000       0.00000000       0.00000000       0.00000000      -0.00369436      -0.00391613      -0.00624138
Au      14.40120000       5.04981000       4.73303000       0.00000000       0.00000000       0.00000000       0.00274424      -0.00410532      -0.00566105
Au      17.31740000       5.05063000       4.72713000       0.00000000       0.00000000       0.00000000      -0.00333371       0.00180421       0.00151033
Au      20.26490000       5.01996000       4.72208000       0.00000000       0.00000000       0.00000000       0.00609553       0.00590073       0.00315443
Au      23.13250000       5.00329000       4.75416000       0.00000000       0.00000000       0.00000000      -0.00271190       0.00115293       0.00117818
Au      27.38050000       7.52704000       4.77495000       0.00000000       0.00000000       0.00000000      -0.00027140       0.00015749       0.00004302
Au       7.22390000       7.47985000       4.77619000       0.00000000       0.00000000       0.00000000      -0.00008204       0.00002520      -0.00007173
Au      10.06680000       7.48781000       4.71824000       0.00000000       0.00000000       0.00000000       0.00164126       0.00022564       0.00186731
Au      13.04800000       7.54665000       4.76170000       0.00000000       0.00000000       0.00000000      -0.00069764      -0.00065800      -0.00073440
Au      15.87100000       7.42635000       4.77342000       0.00000000       0.00000000       0.00000000       0.00221005       0.00299068      -0.00328769
Au      18.76790000       7.42791000       4.77709000       0.00000000       0.00000000       0.00000000       0.00463071       0.00062555       0.00632442
Au      21.56180000       7.51658000       4.76488000       0.00000000       0.00000000       0.00000000      -0.00577865      -0.00294231       0.00425782
Au      24.51390000       7.44310000       4.75651000       0.00000000       0.00000000       0.00000000       0.00125475       0.00058756      -0.00201403
Au       5.80182000       9.98823000       4.77920000       0.00000000       0.00000000       0.00000000       0.00024022      -0.00015131       0.00027833
Au       8.62393000      10.01860000       4.75372000       0.00000000       0.00000000       0.00000000       0.00077980       0.00165642       0.00219525
Au      11.56370000       9.99878000       4.76006000       0.00000000       0.00000000       0.00000000      -0.00269795       0.00416603      -0.00094745
Au      14.36310000      10.02580000       4.76145000       0.00000000       0.00000000       0.00000000       0.00410385       0.00036463       0.00224168
Au      17.32510000      10.03910000       4.61175000       0.00000000       0.00000000       0.00000000      -0.00041658       0.00034436       0.00517965
Au      20.24660000       9.99688000       4.76831000       0.00000000       0.00000000       0.00000000      -0.00042325       0.00056798      -0.00174962
Au      23.15060000      10.03060000       4.71426000       0.00000000       0.00000000       0.00000000      -0.00069934       0.00151710       0.00176583
Au      25.98960000       9.99922000       4.77732000       0.00000000       0.00000000       0.00000000      -0.00084289       0.00007676       0.00027449
Au      30.29250000      12.52280000       4.77974000       0.00000000       0.00000000       0.00000000      -0.00104793       0.00025733       0.00050348
Au      10.08920000      12.50140000       4.73804000       0.00000000       0.00000000       0.00000000       0.00173412      -0.00254254      -0.00079604
Au      13.05960000      12.48170000       4.78325000       0.00000000       0.00000000       0.00000000      -0.00490704      -0.00209817      -0.00960899
Au      15.84400000      12.53830000       4.79304000       0.00000000       0.00000000       0.00000000       0.00623941      -0.00455696      -0.00898521
Au      18.81160000      12.51600000       4.79770000       0.00000000       0.00000000       0.00000000      -0.00156481      -0.00270050      -0.00547620